 Gaussian 16, Revision C.01,

 ---------------
 #p RHF/6-31g(d)
 ---------------

 -----
 title
 -----
 Symbolic Z-matrix:
 Charge =  0 Multiplicity = 1

 SCF Done:  E(RHF) =  -347.693412601     A.U. after   12 cycles
 Normal termination of Gaussian 16 at Thu Jan 12 23:36:56 2023.

 ----------------------------------------------------------
 #p RHF/6-31G(d) guess=(read,local,only,save) geom=allcheck
 ----------------------------------------------------------

 Structure from the checkpoint file:  "is_6-31gd.chk"
 -----
 title
 -----
 Charge =  0 Multiplicity = 1

 Normal termination of Gaussian 16 at Thu Jan 12 23:37:00 2023.
 Gaussian 16:  ES64L-G16RevC.01  3-Jul-2019

 ---------------------------------------------------------------------
 #p RHF/6-31G(d,p) guess=(read,only,save) geom=allcheck iop(4/9=20212)
 ---------------------------------------------------------------------

 Structure from the checkpoint file:  "is_6-31gd.chk"
 -----
 title
 -----
 Charge =  0 Multiplicity = 1

                         Standard orientation:
 ---------------------------------------------------------------------
 Center     Atomic      Atomic             Coordinates (Angstroms)
 Number     Number       Type             X           Y           Z
 ---------------------------------------------------------------------
      1          1           0        0.596897    2.326472   -1.056614
      2          6           0        0.390022    1.467346   -0.422729
      3          6           0        0.474611   -1.787060    0.762746
      4          6           0        1.310333    1.304555    0.762746
      5          1           0        2.329088    0.586610   -1.056614
      6          1           0        0.904104    0.900119    1.685488
      7          1           0        2.072241    2.063102    0.924013
      8          6           0        1.469055    0.383533   -0.422729
      9          6           0        1.075748   -1.071442   -0.422730
     10          1           0       -2.313232   -0.646308   -1.056614
     11          6           0       -1.465770   -0.395904   -0.422729
     12          1           0        0.750580   -2.826165    0.924013
     13          6           0       -1.784945    0.482504    0.762746
     14          1           0       -1.672562    1.723743   -1.056614
     15          1           0       -1.231578    0.332919    1.685487
     16          1           0       -2.822820    0.763061    0.924013
     17          6           0       -1.066678    1.080472   -0.422729
     18          1           0        1.716335   -1.680163   -1.056614
     19          1           0        0.327473   -1.233036    1.685487
     20          6           0       -0.402378   -1.464005   -0.422729
     21          1           0       -0.656526   -2.310352   -1.056614
 ---------------------------------------------------------------------

 The electronic state is 1-A.
 Alpha  occ. eigenvalues --  -11.22767 -11.22740 -11.22739 -11.22675 -11.22675
 Alpha  occ. eigenvalues --  -11.22642 -11.21891 -11.21891 -11.21890  -1.18032
 Alpha  occ. eigenvalues --   -1.10524  -1.10524  -0.87542  -0.87542  -0.86041
 Alpha  occ. eigenvalues --   -0.76438  -0.76438  -0.70404  -0.67100  -0.65196
 Alpha  occ. eigenvalues --   -0.62952  -0.62952  -0.53153  -0.53152  -0.52484
 Alpha  occ. eigenvalues --   -0.48907  -0.48907  -0.48358  -0.44688  -0.44688
 Alpha  occ. eigenvalues --   -0.37243  -0.35171  -0.35171
 Alpha virt. eigenvalues --    0.20479   0.24044   0.26191   0.26191   0.28637
 Alpha virt. eigenvalues --    0.28637   0.32299   0.32299   0.34392   0.34392
 Alpha virt. eigenvalues --    0.34459   0.36411   0.36411   0.36521   0.37892

 Mulliken charges:
               1
     1  H    0.185014
     2  C   -0.180395
     3  C   -0.361575
     4  C   -0.361575
     5  H    0.185014
     6  H    0.173103
     7  H    0.179233
     8  C   -0.180395
     9  C   -0.180394
    10  H    0.185014
    11  C   -0.180394
    12  H    0.179233
    13  C   -0.361575
    14  H    0.185014
    15  H    0.173103
    16  H    0.179233
    17  C   -0.180395
    18  H    0.185014
    19  H    0.173103
    20  C   -0.180394
    21  H    0.185014
 Sum of Mulliken charges =  -0.00000

 Dipole moment (field-independent basis, Debye):
    X=             -0.0000    Y=              0.0000    Z=             -0.3682  Tot=              0.3682
 Quadrupole moment (field-independent basis, Debye-Ang):
   XX=            -54.3178   YY=            -54.3178   ZZ=            -54.8397
   XY=              0.0000   XZ=              0.0000   YZ=              0.0000

 Normal termination of Gaussian 16 at Thu Jan 12 23:37:13 2023.
